version 2
run nodebug-0-20160705-15:42:36-18126
attr configname nodebug
attr datetime 20160705-15:42:36
attr experiment nodebug
attr inifile omnetpp.ini
attr iterationvars ""
attr iterationvars2 $repetition=0
attr measurement ""
attr network scenario
attr processid 18126
attr repetition 0
attr replication #0
attr resultdir results
attr runnumber 0
attr seedset 0

vector 2  scenario.node[0].veinsmobility  posx  ETV
vector 3  scenario.node[0].veinsmobility  posy  ETV
vector 9  scenario.node[1].veinsmobility  posx  ETV
vector 10  scenario.node[1].veinsmobility  posy  ETV
vector 4  scenario.node[0].veinsmobility  speed  ETV
vector 11  scenario.node[1].veinsmobility  speed  ETV
vector 5  scenario.node[0].veinsmobility  acceleration  ETV
vector 6  scenario.node[0].veinsmobility  co2emission  ETV
vector 12  scenario.node[1].veinsmobility  acceleration  ETV
vector 13  scenario.node[1].veinsmobility  co2emission  ETV
13	4	0.03	1.1420991308259
13	5	0.04	1.1578369600642
13	6	0.05	1.1734018095127
13	7	0.06	1.189271957084
13	8	0.07	1.2054853540611
13	9	0.08	1.2215317255079
13	10	0.09	1.2385711436842
13	11	0.1	1.2532786440665
13	13	0.11	1.2672713894801
13	14	0.12	1.2791279238162
13	15	0.13	1.297095872725
13	16	0.14	1.3131650604128
13	17	0.15	1.3214252506593
13	18	0.16	1.3437046319588
13	19	0.17	1.3526500921481
13	20	0.18	1.3727431975785
13	21	0.19	1.373039610231
13	22	0.2	1.4077457774687
13	23	0.21	1.4013923858064
13	24	0.22	1.4268801181739
13	25	0.23	1.4291327401338
13	26	0.24	1.452497148611
13	27	0.25	1.4593976938034
13	28	0.26	1.4702023454093
13	29	0.27	1.4893788417708
13	30	0.28	1.5047049106151
13	31	0.29	1.5053127686977
13	32	0.3	1.5564711572613
13	33	0.31	1.548250838424
13	34	0.32	1.581219372613
13	35	0.33	1.5558590624253
13	36	0.34	1.6074960847315
13	37	0.35	1.6288903077579
13	38	0.36	1.6276357721815
13	39	0.37	1.657524477627
13	40	0.38	1.665515666599
13	41	0.39	1.663123908406
13	42	0.4	1.6207396791854
13	43	0.41	1.680767567362
13	44	0.42	1.6740101140422
13	45	0.43	1.6495637151225
13	46	0.44	1.7612599861295
13	47	0.45	1.6597418327073
13	48	0.46	1.7117699376172
13	49	0.47	1.7920906296214
13	50	0.48	1.7782436978136
13	51	0.49	1.7291109947388
13	52	0.5	1.7615993834073
13	53	0.51	1.8198473241694
13	54	0.52	1.8833641287655
13	55	0.53	1.7897342792898
13	56	0.54	1.7380423192262
13	57	0.55	1.8045738721327
13	58	0.56	1.8175295372898
13	59	0.57	1.7520811306943
13	60	0.58	1.8466760239621
13	61	0.59	1.8935241697023
13	62	0.6	1.8911610898089
13	63	0.61	1.8667951145013
13	64	0.62	1.9452274376863
13	65	0.63	1.8729292160098
13	66	0.64	1.9734376095681
13	67	0.65	1.8631911187738
13	68	0.66	1.823831032483
13	69	0.67	1.9091901743337
13	70	0.68	2.1035484665353
13	71	0.69	1.939089905494
13	72	0.7	1.9320532928614
13	73	0.71	1.8473084296714
13	74	0.72	1.8816910303405
13	75	0.73	2.00663572444
13	76	0.74	2.1674617888921
13	77	0.75	2.0469759101373
13	78	0.76	2.2088513533231
13	79	0.77	2.0718343887692
13	80	0.78	1.882739575754
13	81	0.79	2.1204421609795
13	82	0.8	2.084259069268
13	83	0.81	2.0112247822953
13	84	0.82	1.9404755028214
13	85	0.83	1.9294374810939
13	86	0.84	2.2272140744495
13	87	0.85	2.0901581884615
13	88	0.86	1.966680145287
13	89	0.87	2.1295397566358
13	90	0.88	1.9525175278305
13	91	0.89	1.9540415860005
13	92	0.9	2.3519592546597
13	93	0.91	2.2726074506643
13	94	0.92	2.4168786935775
13	95	0.93	2.0118627229625
13	96	0.94	2.11566327772
13	97	0.95	2.0204744145405
13	98	0.96	2.330032475718
13	99	0.97	2.2692873618437
13	100	0.98	2.1929262627533
13	101	0.99	2.4183771890065
13	102	1	2.3135283616325
13	104	1.01	2.454228559714
13	105	1.02	2.2141889925167
13	106	1.03	2.1391809093983
13	107	1.04	2.4002103001612
13	108	1.05	2.3196909117921
13	109	1.06	2.1214294554052
13	110	1.07	2.3588383409667
13	111	1.08	2.0376700521295
13	112	1.09	2.21137931398
13	113	1.1	2.0453189998872
13	115	1.11	2.1923267856257
13	116	1.12	2.3575445251944
13	117	1.13	1.990959282856
13	118	1.14	2.6093347456776
13	119	1.15	2.1476822692861
13	120	1.16	2.4131226121986
13	121	1.17	2.223246192034
13	122	1.18	2.5519071577885
13	123	1.19	2.5158529021254
13	124	1.2	2.0246083502941
13	126	1.21	2.3210907450946
13	127	1.22	2.2738965103789
13	128	1.23	2.3808796691393
13	129	1.24	2.6299141434133
13	130	1.25	2.5113173828477
13	131	1.26	2.3418114195746
13	132	1.27	2.4664032594261
13	133	1.28	2.4799835530959
13	134	1.29	2.2878875832089
13	135	1.3	2.6486380989811
13	137	1.31	2.581126417532
13	138	1.32	2.2853836475489
13	139	1.33	2.1833075403676
13	140	1.34	2.8463564672264
13	141	1.35	2.8701051105954
13	142	1.36	2.6588683551829
13	143	1.37	2.4983084323133
13	144	1.38	2.9607193962804
13	145	1.39	2.1523180232571
13	146	1.4	2.7297641431532
13	148	1.41	2.8305173370996
13	149	1.42	2.9155965813989
13	150	1.43	2.9697384258565
13	151	1.44	2.1758700610271
13	152	1.45	2.8427108976579
13	153	1.46	2.5997226826232
13	154	1.47	2.6914115006249
13	155	1.48	3.027426912017
13	156	1.49	2.803845037177
13	157	1.5	2.7042569761766
13	159	1.51	2.3600328127536
13	160	1.52	2.3051990845358
13	161	1.53	3.1444062540501
13	162	1.54	2.703192290345
13	163	1.55	3.0457427944908
13	164	1.56	2.4585521847021
13	165	1.57	2.3804643102863
13	166	1.58	2.8347505311608
13	167	1.59	3.1161703155702
13	168	1.6	3.2378338017063
13	170	1.61	2.2941225154436
13	171	1.62	2.9160491695049
13	172	1.63	2.8792665311001
13	173	1.64	3.2697691937358
13	174	1.65	2.9590138369872
13	175	1.66	3.3338281657093
13	176	1.67	3.1249925253086
13	177	1.68	2.5747234902007
13	178	1.69	2.3919617416757
13	179	1.7	2.6026789279904
13	181	1.71	3.0476082419672
13	182	1.72	2.8977257869886
13	183	1.73	3.0699401117819
13	184	1.74	3.2548824538301
13	185	1.75	3.2778550365343
13	186	1.76	2.9696411966247
13	187	1.77	2.5256027066946
13	188	1.78	2.4541462381135
13	189	1.79	2.8323539771146
13	190	1.8	2.8535192623063
13	192	1.81	2.651916182326
13	193	1.82	2.9780985226822
13	194	1.83	3.4983806391838
13	195	1.84	2.7726998221329
13	196	1.85	2.4443891079754
13	197	1.86	3.282350860371
13	198	1.87	2.8182533807699
13	199	1.88	2.6108938615978
13	200	1.89	2.7485182513468
13	201	1.9	2.5056347782133
13	203	1.91	2.9914977672838
13	204	1.92	3.4040771870163
13	205	1.93	3.4053296048308
13	206	1.94	3.4228119668125
13	207	1.95	3.0145373444916
13	208	1.96	3.1648052124154
13	209	1.97	2.547922037086
13	210	1.98	2.9039890928479
13	211	1.99	3.6383920230339
13	212	2	3.6890042333043
13	214	2.01	3.1709915366563
13	215	2.02	2.6933679386708
13	216	2.03	2.5803718474166
13	217	2.04	3.0321628901454
13	218	2.05	3.1344718507389
13	219	2.06	2.7508243005827
13	220	2.07	2.8962679344611
13	221	2.08	3.2392628581218
13	222	2.09	2.9961997085517
13	223	2.1	3.0931822650522
13	225	2.11	2.9632766506931
13	226	2.12	3.2863062926774
13	227	2.13	3.3136104167858
13	228	2.14	2.7383341757197
13	229	2.15	3.7472019182388
13	230	2.16	3.6405940384049
13	231	2.17	2.7936283776087
13	232	2.18	2.7689410790765
13	233	2.19	3.1168656165417
13	234	2.2	3.5524432447476
13	236	2.21	3.3029998774316
13	237	2.22	4.011576776765
13	238	2.23	3.6057750526047
13	239	2.24	3.4632902855133
13	240	2.25	2.847044721719
13	241	2.26	3.133097115442
13	242	2.27	3.4476296144126
13	243	2.28	3.4200295862642
13	244	2.29	3.0073074979727
13	245	2.3	3.7904921731024
13	247	2.31	2.8953669889417
13	248	2.32	3.6936296466973
13	249	2.33	2.8008437544023
13	250	2.34	3.4897862968076
13	251	2.35	3.1601944100977
13	252	2.36	3.9602511315709
13	253	2.37	3.1506392094338
13	254	2.38	3.2780400868758
13	255	2.39	3.9062583007543
13	256	2.4	3.960591139014
13	258	2.41	3.072838297972
13	259	2.42	3.1669497136344
13	260	2.43	3.2790896318687
13	261	2.44	3.8698349444046
13	262	2.45	4.0325144740419
13	263	2.46	3.2629760241629
13	264	2.47	3.6280666991485
13	265	2.48	3.0765245196578
13	266	2.49	4.0316663255171
13	267	2.5	4.1050126379334
13	269	2.51	4.1795518067003
13	270	2.52	3.2892026348683
13	271	2.53	4.3476857581188
13	272	2.54	3.2690795399687
13	273	2.55	4.2784386586083
13	274	2.56	4.1010285060135
13	275	2.57	3.2923351859087
13	276	2.58	3.3262819038357
13	277	2.59	4.4005416427801
13	278	2.6	4.1603377925644
13	280	2.61	4.051514931865
13	281	2.62	3.4487514430573
13	282	2.63	4.4275734598295
13	283	2.64	3.6602391115168
13	284	2.65	4.5404931256156
13	285	2.66	3.2377375579575
13	286	2.67	3.0013242965705
13	287	2.68	3.4570094339176
13	288	2.69	4.3066143027484
13	289	2.7	3.7839390818198
13	291	2.71	3.6826749224039
13	292	2.72	3.353670306002
13	293	2.73	3.6560304643887
13	294	2.74	4.3015354366698
13	295	2.75	3.9242545811241
13	296	2.76	3.2341250112041
13	297	2.77	3.8801256533812
13	298	2.78	3.5184223257117
13	299	2.79	3.9081480780428
13	300	2.8	3.5456698099259
13	302	2.81	3.906011018335
13	303	2.82	3.3323818113251
13	304	2.83	4.4364444491079
13	305	2.84	3.4679991025434
13	306	2.85	3.1334012012586
13	307	2.86	3.3285526860965
13	308	2.87	3.4739563796665
13	309	2.88	3.1304610840357
13	310	2.89	3.5318775195876
13	311	2.9	4.8298621972214
13	313	2.91	4.3865402346337
13	314	2.92	4.1541068392653
13	315	2.93	4.1338645212959
13	316	2.94	4.372310714083
13	317	2.95	4.2031365708654
13	318	2.96	4.7081166179722
13	319	2.97	3.2031515236755
13	320	2.98	4.2246183962098
13	321	2.99	3.945487394049
13	322	3	4.3564516531643
13	324	3.01	3.5717270029587
13	325	3.02	4.2548236298218
13	326	3.03	4.3592700667052
13	327	3.04	4.2979318647657
13	328	3.05	4.4857783608139
13	329	3.06	3.6374329941266
13	330	3.07	3.3691844522863
13	331	3.08	4.4713281947838
13	332	3.09	3.3335306060683
13	333	3.1	5.0631699014384
13	335	3.11	4.1204467728928
13	336	3.12	4.5531526473489
13	337	3.13	3.492225662671
13	338	3.14	4.6736490458255
13	339	3.15	3.8895272844889
13	340	3.16	3.6483347128049
13	341	3.17	4.3640140189355
13	342	3.18	3.7723161322328
13	343	3.19	3.6330831671651
13	344	3.2	4.4909900579946
13	346	3.21	5.0386764326537
13	347	3.22	4.7493611253913
13	348	3.23	4.1201016375309
13	349	3.24	4.3498712450037
13	350	3.25	4.3377165926128
13	351	3.26	4.4041796291905
13	352	3.27	4.2864852172935
13	353	3.28	4.4559437122028
13	354	3.29	3.6679316225634
13	355	3.3	4.4905592244387
13	357	3.31	3.732001449547
13	358	3.32	4.3599896566637
13	359	3.33	5.2014701346088
13	360	3.34	4.0844590443592
13	361	3.35	4.9892726930216
13	362	3.36	3.7314047461552
13	363	3.37	4.0669335313894
13	364	3.38	5.0776304488599
13	365	3.39	5.3089014667288
13	366	3.4	5.4454189699977
13	368	3.41	3.6831373672966
13	369	3.42	5.2205999165061
13	370	3.43	3.9262420468063
13	371	3.44	3.6366596646266
13	372	3.45	4.0687069469009
13	373	3.46	4.5334572889015
13	374	3.47	4.5868042564014
13	375	3.48	3.7495913877591
13	376	3.49	4.5652012340206
13	377	3.5	4.7272142111562
13	379	3.51	5.2354021521922
13	380	3.52	4.6242064997171
13	381	3.53	3.9930130299765
13	382	3.54	4.4729053901267
13	383	3.55	5.3111482693753
13	384	3.56	5.3589889283108
13	385	3.57	4.3091255734369
13	386	3.58	4.5494662373126
13	387	3.59	5.0102936977681
13	388	3.6	5.4014488452821
13	390	3.61	5.3884229950311
13	391	3.62	5.4677048820956
13	392	3.63	4.5190395516639
13	393	3.64	5.573332887314
13	394	3.65	3.8255981787794
13	395	3.66	5.6172776124871
13	396	3.67	4.0785742699534
13	397	3.68	3.9185527929733
13	398	3.69	5.6283565088101
13	399	3.7	4.9167720756133
13	401	3.71	4.8246829754858
13	402	3.72	4.6000438047925
13	403	3.73	4.3097755696102
13	404	3.74	5.8362804369076
13	405	3.75	4.2946053924862
13	406	3.76	4.2229274419408
13	407	3.77	5.9115349755425
13	408	3.78	5.2621908614089
13	409	3.79	5.4429470644754
13	410	3.8	4.849533733288
13	412	3.81	3.8483241991513
13	413	3.82	4.7435063452619
13	414	3.83	5.7915799593497
13	415	3.84	4.619840181109
13	416	3.85	4.0810987471318
13	417	3.86	5.6898609481212
13	418	3.87	3.8016692537442
13	419	3.88	5.877958798618
13	420	3.89	5.8716134169878
13	421	3.9	4.647469527153
13	423	3.91	3.9293123358295
13	424	3.92	3.9632252159
13	425	3.93	5.098457524466
13	426	3.94	4.4595763170803
13	427	3.95	4.4329670299246
13	428	3.96	5.452328051805
13	429	3.97	5.9015818067913
13	430	3.98	5.1575959491962
13	431	3.99	5.2902192928496
13	432	4	4.9718330037283
13	434	4.01	4.2426271115459
13	435	4.02	4.9780185405131
13	436	4.03	4.6465689096422
13	437	4.04	4.8227516507191
13	438	4.05	6.0457399541418
13	439	4.06	6.0763113868386
13	440	4.07	6.177940731938
13	441	4.08	6.1203459292464
13	442	4.09	5.7728786545505
13	443	4.1	4.3329666875005
13	445	4.11	5.1051045924866
13	446	4.12	5.1370643001328
13	447	4.13	4.814629689271
13	448	4.14	5.0786150947829
13	449	4.15	6.3375645695368
13	450	4.16	5.0132409568171
13	451	4.17	4.5541778165102
13	452	4.18	5.53050788553
13	453	4.19	5.259067984674
13	454	4.2	4.0589624042934
13	456	4.21	5.8847633620826
13	457	4.22	5.5762695881018
13	458	4.23	6.404869772571
13	459	4.24	5.7613772790152
13	460	4.25	4.4711158067957
13	461	4.26	4.5384861638601
13	462	4.27	4.9632559174287
13	463	4.28	5.6544949848172
13	464	4.29	5.805357407202
13	465	4.3	4.5828972830359
13	467	4.31	6.4395490010749
13	468	4.32	4.8994180256992
13	469	4.33	5.6766627519595
13	470	4.34	5.0428694921761
13	471	4.35	4.3038557374457
13	472	4.36	4.4953795700711
13	473	4.37	5.4132521890758
13	474	4.38	5.6023232290279
13	475	4.39	4.5978446027006
13	476	4.4	4.8212285947634
13	478	4.41	5.5796365544075
13	479	4.42	4.240701111699
13	480	4.43	5.8146701324894
13	481	4.44	5.7368429600625
13	482	4.45	4.8597822517123
13	483	4.46	5.6220877402272
13	484	4.47	4.3568450241365
13	485	4.48	6.1421566453465
13	486	4.49	5.8280544379689
13	487	4.5	5.0096238692934
13	489	4.51	4.4905886050241
13	490	4.52	6.5448270104913
13	491	4.53	6.2405155935922
13	492	4.54	6.2889641054247
13	493	4.55	5.607010397757
13	494	4.56	4.5456588879696
13	495	4.57	5.9751572408567
13	496	4.58	5.9141042285878
13	497	4.59	4.5001594687831
13	498	4.6	6.6626110723435
13	500	4.61	5.2836411045975
13	501	4.62	6.6372614209252
13	502	4.63	5.9982805941109
13	503	4.64	6.1448946123152
13	504	4.65	5.1899812801086
13	505	4.66	4.8835831342958
13	506	4.67	5.6852505719346
13	507	4.68	6.2628984548432
13	508	4.69	4.6599247440995
13	509	4.7	6.1307519103431
13	511	4.71	5.0795003636009
13	512	4.72	5.5906853363828
13	513	4.73	6.5769692793296
13	514	4.74	5.6301546963429
13	515	4.75	5.719447687105
13	516	4.76	6.2038273938282
13	517	4.77	7.1190084709483
13	518	4.78	6.7882920565071
13	519	4.79	6.850428441846
13	520	4.8	5.2484319183915
13	522	4.81	5.2526408266767
13	523	4.82	5.534008255421
13	524	4.83	5.3728771772581
13	525	4.84	6.0147554128732
13	526	4.85	5.3214809813263
13	527	4.86	6.2303682234369
13	528	4.87	7.0334518244576
13	529	4.88	4.5972931978291
13	530	4.89	7.136012554804
13	531	4.9	7.3039742372655
13	533	4.91	4.5658405955107
13	534	4.92	6.9576361870394
13	535	4.93	6.6546076712228
13	536	4.94	6.7923123594814
13	537	4.95	5.7515846252
13	538	4.96	4.6141233597713
13	539	4.97	6.6577082727023
13	540	4.98	4.6437640085419
13	541	4.99	7.3996839546213
13	542	5	4.8974466291702
13	544	5.01	5.4273965753787
13	545	5.02	6.6967518057399
13	546	5.03	4.8985539013848
13	547	5.04	7.4569308932753
13	548	5.05	5.7070995947566
13	549	5.06	6.5896487463323
13	550	5.07	4.7162141691072
13	551	5.08	7.0863168185431
13	552	5.09	4.9247146285158
13	553	5.1	6.6291918083122
13	555	5.11	4.9752294249498
13	556	5.12	6.1045939694666
13	557	5.13	6.1197765962951
13	558	5.14	6.5003709364125
13	559	5.15	6.0817071737943
13	560	5.16	4.8453697563157
13	561	5.17	5.0064843536217
13	562	5.18	5.6621176710859
13	563	5.19	5.7849311022221
13	564	5.2	6.0673893682041
13	566	5.21	6.9122936169108
13	567	5.22	7.303275413043
13	568	5.23	5.1628287109968
13	569	5.24	5.8428270932408
13	570	5.25	6.875342389676
13	571	5.26	6.396400860845
13	572	5.27	7.7432605465513
13	573	5.28	6.1194941703765
13	574	5.29	6.7349418095005
13	575	5.3	6.3099228598444
13	577	5.31	7.3989848606208
13	578	5.32	6.5711303557393
13	579	5.33	5.0910630913172
13	580	5.34	7.8861043569887
13	581	5.35	4.9117046543306
13	582	5.36	5.7828869830618
13	583	5.37	7.6385550993373
13	584	5.38	7.0576239068645
13	585	5.39	6.2880778273473
13	586	5.4	5.7161134043778
13	588	5.41	6.778610305882
13	589	5.42	7.300377264117
13	590	5.43	6.5938769045167
13	591	5.44	4.9677096595096
13	592	5.45	5.4105554676626
13	593	5.46	5.1600288010929
13	594	5.47	5.9516428811122
13	595	5.48	6.6809586039809
13	596	5.49	5.9122473557461
13	597	5.5	6.036580789907
13	599	5.51	8.0274807747621
13	600	5.52	5.1885691020535
13	601	5.53	6.4040729855697
13	602	5.54	4.9713501612233
13	603	5.55	6.933236996992
13	604	5.56	5.5785197505608
13	605	5.57	6.7014298847096
13	606	5.58	5.5283476290069
13	607	5.59	6.4667165142936
13	608	5.6	5.346575706405
13	610	5.61	5.3756017007709
13	611	5.62	7.1769977016548
13	612	5.63	6.9408912613989
13	613	5.64	6.493945499402
13	614	5.65	6.2513043620207
13	615	5.66	7.0541639888128
13	616	5.67	6.531126545421
13	617	5.68	7.9266379010653
13	618	5.69	6.0961725250562
13	619	5.7	7.4034618832813
13	621	5.71	8.224451198222
13	622	5.72	7.9982253256731
13	623	5.73	8.045666691421
13	624	5.74	7.3612780392272
13	625	5.75	7.6071390038505
13	626	5.76	6.5632732501896
13	627	5.77	5.4229362619901
13	628	5.78	6.5215160697416
13	629	5.79	6.4707243743647
13	630	5.8	7.6899470750566
13	632	5.81	6.5481285254483
13	633	5.82	8.0255981937625
13	634	5.83	7.3984212494868
13	635	5.84	6.428436789023
13	636	5.85	7.3334834040926
13	637	5.86	5.4774139756108
13	638	5.87	5.5935274169256
13	639	5.88	7.112961768651
13	640	5.89	6.8389510675417
13	641	5.9	6.9956012791595
13	643	5.91	8.0005328000123
13	644	5.92	7.1552521125379
13	645	5.93	8.0162303602839
13	646	5.94	6.212950368292
13	647	5.95	6.8832639084938
13	648	5.96	7.5925163805654
13	649	5.97	8.7044570224535
13	650	5.98	6.6597151621298
13	651	5.99	6.4888053664493
13	652	6	8.7379419009815
13	654	6.01	5.3905099157449
13	655	6.02	6.4641235978964
13	656	6.03	7.7681048659106
13	657	6.04	8.1059646295132
13	658	6.05	5.5755975430568
13	659	6.06	7.7458491047293
13	660	6.07	7.4276672455832
13	661	6.08	6.6288367984738
13	662	6.09	5.7285412488524
13	663	6.1	7.3526573919253
13	665	6.11	5.6097353724972
13	666	6.12	6.8058925843567
13	667	6.13	7.3838316204579
13	668	6.14	6.8224047203774
13	669	6.15	7.6798551139316
13	670	6.16	6.6128193576704
13	671	6.17	6.6378926204867
13	672	6.18	6.0405199348134
13	673	6.19	7.5471368368712
13	674	6.2	8.8694092910428
13	676	6.21	5.481558263826
13	677	6.22	7.4163354112814
13	678	6.23	5.6634229403329
13	679	6.24	6.6266355918276
13	680	6.25	8.0995565606158
13	681	6.26	7.036097121762
13	682	6.27	5.6218781669399
13	683	6.28	8.6881147857219
13	684	6.29	8.1259617642909
13	685	6.3	8.8323773281196
13	687	6.31	6.3540691528235
13	688	6.32	9.0794918937403
13	689	6.33	8.6728339002061
13	690	6.34	8.234979879365
13	691	6.35	6.0046396107924
13	692	6.36	8.5560394399055
13	693	6.37	7.6341681180418
13	694	6.38	8.0446959008398
13	695	6.39	7.1015889915888
13	696	6.4	5.8034787512098
13	698	6.41	5.7929516562189
13	699	6.42	9.0961670755182
13	700	6.43	7.0894056562966
13	701	6.44	5.9978272155777
13	702	6.45	6.4168982846696
13	703	6.46	8.5499957075988
13	704	6.47	6.4936944598039
13	705	6.48	8.6580034631054
13	706	6.49	6.0097470116253
13	707	6.5	9.3583520860563
13	709	6.51	9.0692722965537
13	710	6.52	7.0899369218753
13	711	6.53	7.9926854830856
13	712	6.54	9.0862274581114
13	713	6.55	5.735875033885
13	714	6.56	6.0757735796359
13	715	6.57	8.4564165690678
13	716	6.58	7.7007782390589
13	717	6.59	7.6863113351085
13	718	6.6	7.5875093158694
13	720	6.61	5.8450706126125
13	721	6.62	9.1674453664671
13	722	6.63	9.4145480548329
13	723	6.64	7.7255534868775
13	724	6.65	7.8338332147375
13	725	6.66	8.7035998058413
13	726	6.67	9.3983198105798
13	727	6.68	9.1634579904711
13	728	6.69	6.3410027869769
13	729	6.7	8.1186534499611
13	731	6.71	8.2011255688097
13	732	6.72	9.6113106754739
13	733	6.73	8.2531780965635
13	734	6.74	7.1457662779511
13	735	6.75	7.2956835352392
13	736	6.76	6.5338547079135
13	737	6.77	7.2020346472757
13	738	6.78	6.9245852920925
13	739	6.79	7.675787471802
13	740	6.8	9.3629731156191
13	742	6.81	8.2178109979345
13	743	6.82	8.2279616364159
13	744	6.83	8.5727388160259
13	745	6.84	9.7380849446556
13	746	6.85	6.9500186426949
13	747	6.86	9.4487735641976
13	748	6.87	7.489383409297
13	749	6.88	7.1125898451088
13	750	6.89	7.3932325353672
13	751	6.9	6.1077632038203
13	753	6.91	9.5328752497203
13	754	6.92	6.4907383003325
13	755	6.93	9.8554117031983
13	756	6.94	7.8411812777485
13	757	6.95	8.37643304099
13	758	6.96	7.9050085264949
13	759	6.97	8.5564963943457
13	760	6.98	9.2736352191311
13	761	6.99	9.9821683827719
13	762	7	7.9762562077319
13	764	7.01	6.6694611030364
13	765	7.02	8.583054390068
13	766	7.03	9.2069533072742
13	767	7.04	9.8014356410354
13	768	7.05	9.7981583870131
13	769	7.06	9.2574455688423
13	770	7.07	9.769092126642
13	771	7.08	9.1074788834967
13	772	7.09	9.9389098727564
13	773	7.1	9.9576485714174
13	775	7.11	6.7127580291964
13	776	7.12	9.5851392941451
13	777	7.13	7.9555141502581
13	778	7.14	7.0801217833374
13	779	7.15	8.4014713542533
13	780	7.16	9.6709476500255
13	781	7.17	9.4937625440026
13	782	7.18	8.5357681162659
13	783	7.19	8.1496673866863
13	784	7.2	8.9065604535045
13	786	7.21	7.1118849944185
13	787	7.22	7.2465083374083
13	788	7.23	3.2469048637611
13	789	7.24	5.7861206209499
13	790	7.25	0.973
13	791	7.26	4.1316172233266
13	792	7.27	0.973
13	793	7.28	2.8111821045675
13	794	7.29	0.973
13	795	7.3	2.9803080598889
13	797	7.31	3.6783338707221
13	798	7.32	1.4559906570946
13	799	7.33	2.5486391315093
13	800	7.34	2.0751586429148
13	801	7.35	2.462383549009
13	802	7.36	0.973
13	803	7.37	1.2498959011111
13	804	7.38	3.7189929493484
13	805	7.39	0.973
13	806	7.4	3.7303173671603
13	808	7.41	1.8497464486735
13	809	7.42	2.5005294447282
13	810	7.43	0.973
13	811	7.44	6.0733331643804
13	812	7.45	1.2964132771744
13	813	7.46	0.973
13	814	7.47	4.2513234854251
13	815	7.48	0.973
13	816	7.49	2.7052817422397
13	817	7.5	0.973
13	819	7.51	3.9456856413834
13	820	7.52	2.8941299652047
13	821	7.53	0.973
13	822	7.54	0.973
13	823	7.55	3.7419753065205
13	824	7.56	3.0879817315976
13	825	7.57	0.973
13	826	7.58	4.141544059195
13	827	7.59	3.5780637329082
13	828	7.6	0.973
13	830	7.61	1.7320925632664
13	831	7.62	0.973
13	832	7.63	3.701231879893
13	833	7.64	2.08525370169
13	834	7.65	2.4809891011273
13	835	7.66	0.973
13	836	7.67	1.7573829694473
13	837	7.68	1.8304334929294
13	838	7.69	4.6002680937029
13	839	7.7	0.973
13	841	7.71	2.7552869614743
13	842	7.72	2.5126414366374
13	843	7.73	3.8295264025637
13	844	7.74	2.1462853717703
13	845	7.75	2.2383017657627
13	846	7.76	0.973
13	847	7.77	4.6571677830253
13	848	7.78	1.3619211715137
13	849	7.79	1.8560731158418
13	850	7.8	0.973
13	852	7.81	1.7503170518777
13	853	7.82	4.977721463228
13	854	7.83	0.973
13	855	7.84	0.973
13	856	7.85	2.1303594517016
13	857	7.86	5.0216184431329
13	858	7.87	1.8016176438301
13	859	7.88	1.4088826466969
13	860	7.89	2.985000191514
13	861	7.9	0.973
13	863	7.91	3.3539801744937
13	864	7.92	0.973
13	865	7.93	3.3729457106081
13	866	7.94	0.973
13	867	7.95	4.0311739072918
13	868	7.96	0.973
13	869	7.97	2.207553504006
13	870	7.98	4.2890708856133
13	871	7.99	2.6532261027652
13	872	8	1.9929085562456
13	874	8.01	0.973
13	875	8.02	3.8828447925415
13	876	8.03	0.973
13	877	8.04	2.9950088804455
13	878	8.05	2.1563708271652
13	879	8.06	0.973
13	880	8.07	2.4462590427409
13	881	8.08	0.973
13	882	8.09	4.5470171304746
13	883	8.1	0.973
13	885	8.11	2.5600870092827
13	886	8.12	3.752830947623
13	887	8.13	0.973
13	888	8.14	3.4206764607742
13	889	8.15	0.973
13	890	8.16	5.2155170523305
13	891	8.17	1.6089572515162
13	892	8.18	2.1503847790852
13	893	8.19	1.10690534104
13	894	8.2	0.973
13	896	8.21	2.9400631898803
13	897	8.22	2.1910783061815
13	898	8.23	4.0659413132159
13	899	8.24	0.973
13	900	8.25	3.541548607488
13	901	8.26	1.4219866785221
13	902	8.27	0.973
13	903	8.28	5.0269276929541
13	904	8.29	0.973
13	905	8.3	2.2584238930243
13	907	8.31	4.720696267828
13	908	8.32	0.973
13	909	8.33	4.0777997304995
13	910	8.34	0.973
13	911	8.35	2.4049603931231
13	912	8.36	1.2970425757215
13	913	8.37	3.4179298693214
13	914	8.38	0.973
13	915	8.39	5.6490143604542
13	916	8.4	0.973
13	918	8.41	0.973
13	919	8.42	3.2691328055817
13	920	8.43	3.0530628327892
13	921	8.44	2.3025326879035
13	922	8.45	0.973
13	923	8.46	3.4666397672216
13	924	8.47	0.973
13	925	8.48	2.649716783335
13	926	8.49	3.3804975684328
13	927	8.5	2.1786247917848
13	929	8.51	1.4325212663255
13	930	8.52	0.973
13	931	8.53	2.6613628661317
13	932	8.54	5.0910712110873
13	933	8.55	0.973
13	934	8.56	1.0842805049475
13	935	8.57	2.9008986996352
13	936	8.58	4.2591805066985
13	937	8.59	0.973
13	938	8.6	3.4633353105465
13	940	8.61	1.1124190201369
13	941	8.62	0.973
13	942	8.63	2.0841849867484
13	943	8.64	4.7065235020921
13	944	8.65	1.7896064107825
13	945	8.66	0.973
13	946	8.67	0.973
13	947	8.68	5.4388835723199
13	948	8.69	1.5708139455857
13	949	8.7	0.973
13	951	8.71	3.6233038574094
13	952	8.72	0.973
13	953	8.73	5.0121837393691
13	954	8.74	0.973
13	955	8.75	2.8905927228003
13	956	8.76	2.0679005979213
13	957	8.77	1.4818979577185
13	958	8.78	2.0847821555703
13	959	8.79	2.343941024047
13	960	8.8	0.973
13	962	8.81	2.7928645584732
13	963	8.82	2.0442394256471
13	964	8.83	3.8579841097151
13	965	8.84	0.973
13	966	8.85	1.1841903287897
13	967	8.86	1.9579817774187
13	968	8.87	3.9139880056692
13	969	8.88	0.973
13	970	8.89	2.1729450411432
13	971	8.9	4.5142487982249
13	973	8.91	0.973
13	974	8.92	3.8031271191484
13	975	8.93	1.8384086929923
13	976	8.94	2.1861573405236
13	977	8.95	1.5272123855166
13	978	8.96	1.8038244407407
13	979	8.97	2.5413825003196
13	980	8.98	0.973
13	981	8.99	3.0265377703647
13	982	9	2.973710347298
13	984	9.01	1.9632380173774
13	985	9.02	0.973
13	986	9.03	3.9624451758895
13	987	9.04	2.5993931135148
13	988	9.05	2.663826245801
13	989	9.06	0.973
13	990	9.07	1.8486753683509
13	991	9.08	5.3680040977251
13	992	9.09	1.1305248084228
13	993	9.1	2.6930240477888
13	995	9.11	2.276298803217
13	996	9.12	0.973
13	997	9.13	5.5547336971828
13	998	9.14	0.973
13	999	9.15	5.7262914029066
13	1000	9.16	0.973
13	1001	9.17	3.2688667534078
13	1002	9.18	2.8578369510349
13	1003	9.19	2.1341604402053
13	1004	9.2	0.973
13	1006	9.21	3.8794860304582
13	1007	9.22	0.973
13	1008	9.23	2.6124634991739
13	1009	9.24	2.1623452641692
13	1010	9.25	0.973
13	1011	9.26	3.4761375421998
13	1012	9.27	0.973
13	1013	9.28	2.4502401091935
13	1014	9.29	4.9021894454545
13	1015	9.3	0.973
13	1017	9.31	4.3543920205289
13	1018	9.32	0.973
13	1019	9.33	5.6269145105633
13	1020	9.34	0.973
13	1021	9.35	3.0037738937249
13	1022	9.36	0.973
13	1023	9.37	0.973
13	1024	9.38	4.2101951630104
13	1025	9.39	2.6434951030501
13	1026	9.4	1.2770255157401
13	1028	9.41	0.973
13	1029	9.42	4.8452306926572
13	1030	9.43	1.663448873851
13	1031	9.44	2.6907497149248
13	1032	9.45	0.973
13	1033	9.46	3.3257960123829
13	1034	9.47	2.3802510918967
13	1035	9.48	0.973
13	1036	9.49	3.6278432926237
13	1037	9.5	0.973
13	1039	9.51	1.6610144119998
13	1040	9.52	4.5271560769813
13	1041	9.53	0.973
13	1042	9.54	5.4223564327004
13	1043	9.55	1.4897647220079
13	1044	9.56	2.4919643777704
13	1045	9.57	1.3339971469969
13	1046	9.58	1.4642182094328
13	1047	9.59	1.850807760197
13	1048	9.6	0.973
13	1050	9.61	1.8766273542991
13	1051	9.62	4.8275565571761
13	1052	9.63	0.973
13	1053	9.64	4.1671310430145
13	1054	9.65	0.973
13	1055	9.66	2.5987732881873
13	1056	9.67	2.0516102626631
13	1057	9.68	1.3323478702395
13	1058	9.69	0.973
13	1059	9.7	4.7917310327315
13	1061	9.71	0.973
13	1062	9.72	2.630332392706
13	1063	9.73	4.3632073762061
13	1064	9.74	0.973
13	1065	9.75	3.8373400013161
13	1066	9.76	0.973
13	1067	9.77	5.3849224774134
13	1068	9.78	0.973
13	1069	9.79	3.0507234296933
13	1070	9.8	1.968972898227
13	1072	9.81	0.973
13	1073	9.82	0.973
13	1074	9.83	2.5135273190067
13	1075	9.84	2.3667538845987
13	1076	9.85	2.7160027737487
13	1077	9.86	0.973
13	1078	9.87	3.8252027194992
13	1079	9.88	0.973
13	1080	9.89	2.1931770517462
13	1081	9.9	4.6217587337659
13	1083	9.91	0.973
13	1084	9.92	5.2037210870249
13	1085	9.93	0.973
13	1086	9.94	2.417482973286
13	1087	9.95	0.973
13	1088	9.96	0.973
13	1089	9.97	4.701801131008
13	1090	9.98	0.973
13	1091	9.99	0.973
13	1092	10	4.9966272752129
13	1094	10.01	0.973
13	1095	10.02	2.3792493868073
13	1096	10.03	4.4662939385671
13	1097	10.04	0.973
13	1098	10.05	0.973
13	1099	10.06	4.8091900923077
13	1100	10.07	0.973
13	1101	10.08	3.5302755484559
13	1102	10.09	4.0754297682677
13	1103	10.1	1.216760475609
13	1105	10.11	0.973
13	1106	10.12	3.5799465488807
13	1107	10.13	4.0142168814118
13	1108	10.14	1.2739562095753
13	1109	10.15	1.3195003110084
13	1110	10.16	3.8509028585089
13	1111	10.17	0.973
13	1112	10.18	1.7014105389701
13	1113	10.19	3.0555134970272
13	1114	10.2	0.973
13	1116	10.21	1.3383718272211
13	1117	10.22	4.1918675518907
13	1118	10.23	0.973
13	1119	10.24	1.9468312622594
13	1120	10.25	0.973
13	1121	10.26	2.7385717727864
13	1122	10.27	1.7335642136274
13	1123	10.28	3.5240181266348
13	1124	10.29	3.303693416371
13	1125	10.3	0.973
13	1127	10.31	5.6526072590483
13	1128	10.32	0.973
13	1129	10.33	3.7152451130885
13	1130	10.34	0.973
13	1131	10.35	1.9382817290522
13	1132	10.36	3.0534447296978
13	1133	10.37	3.5723689213559
13	1134	10.38	2.4272668430598
13	1135	10.39	1.9815895324627
13	1136	10.4	2.6048659798869
13	1138	10.41	0.973
13	1139	10.42	3.6339880504071
13	1140	10.43	1.2955179822408
13	1141	10.44	0.973
13	1142	10.45	1.6050254805029
13	1143	10.46	4.9702582714442
13	1144	10.47	0.973
13	1145	10.48	1.0983648542507
13	1146	10.49	1.1856100927834
13	1147	10.5	3.6076916868415
13	1149	10.51	0.973
13	1150	10.52	4.9705773974237
13	1151	10.53	3.0825605911972
13	1152	10.54	0.973
13	1153	10.55	2.9795922747485
13	1154	10.56	0.973
13	1155	10.57	4.499527225965
13	1156	10.58	1.7015291984448
13	1157	10.59	0.973
13	1158	10.6	2.3448630050875
13	1160	10.61	2.6839035168444
13	1161	10.62	1.412437463759
13	1162	10.63	3.2246593690993
13	1163	10.64	3.7571071984165
13	1164	10.65	2.0023040421712
13	1165	10.66	0.973
13	1166	10.67	3.8179905135935
13	1167	10.68	2.1623432218684
13	1168	10.69	0.973
13	1169	10.7	2.4718699817988
13	1171	10.71	4.9852564042352
13	1172	10.72	2.6609695082429
13	1173	10.73	0.973
13	1174	10.74	4.8022294317173
13	1175	10.75	2.4140629977674
13	1176	10.76	0.973
13	1177	10.77	4.4650635084052
13	1178	10.78	1.3757346937418
13	1179	10.79	0.973
13	1180	10.8	3.4303976260038
13	1182	10.81	2.5237577140627
13	1183	10.82	2.540592150942
13	1184	10.83	0.973
13	1185	10.84	4.6780731027817
13	1186	10.85	0.973
13	1187	10.86	2.4706154157891